
 Working directory              : /home/lambda/ajmk/ptch0507/sh/src/oop/testing/ethylene/T0/0/est/./tmp_molpro/molpro.COdNMG4uWQ/
 Global scratch directory       : /home/lambda/ajmk/ptch0507/sh/src/oop/testing/ethylene/T0/0/est/./tmp_molpro/molpro.COdNMG4uWQ/
 Wavefunction directory         : /home/lambda/ajmk/ptch0507/sh/src/oop/testing/ethylene/T0/0/est/./
 Main file repository           : /home/lambda/ajmk/ptch0507/sh/src/oop/testing/ethylene/T0/0/est/./

 id        : kirrander

 Nodes               nprocs
 lambda.chem.ox.ac.uk    1
 GA implementation: MPI file
 GA implementation (serial work in mppx): MPI file

 Using customized tuning parameters: mindgm=1; mindgv=20; mindgc=4; mindgr=1; noblas=0; minvec=7
 default implementation of scratch files=df  


 Variables initialized (1015), CPU time= 0.00 sec
 ***,
 file,2,molpro.wf
 memory,100,m
 gprint,orbital=2,civector,angles=-1,distance=-1
 gthresh,twoint=1.0d-13,energy=1.0d-10,gradient=1.0d-10,printci=0.000000009,thrprint=0
 basis=6-31g**
 symmetry,nosym;
 angstrom;
 orient,noorient;
 geomtype=xyz;
 geom=molpro.xyz
 Including file /home/lambda/ajmk/ptch0507/sh/src/oop/testing/ethylene/T0/0/est/molpro.xyz
 {multi, so;
 maxiter,40;
 occ,9;
 closed,7;
 
 tran,all,DM;
 wf,16,1,0;
 state,3;
 print,orbitals;
 CPMCSCF,GRAD,2.1,ms2=0,accu=1.0d-12,record=5101.1;
 }
 text,calc grad 0 1 1
 {FORCES;SAMC,5101.1};
 Commands initialized (834), CPU time= 0.01 sec, 672 directives.
 Default parameters read. Elapsed time= 0.04 sec

 Checking input...
 Passed
1


                                         ***  PROGRAM SYSTEM MOLPRO  ***
                                       Copyright, TTI GmbH Stuttgart, 2015
                                    Version 2022.2 linked Thu Sep 29 12:48:12 2022


 **********************************************************************************************************************************
 LABEL *                                                                                 
  64 bit serial version                                                                  DATE: 20-Nov-24          TIME: 14:50:49  
 **********************************************************************************************************************************

 SHA1:             51306cdc306ce2a111a2867affebcb289530e0a7
 **********************************************************************************************************************************

 Memory per process:       100 MW
 Total memory per node:    100 MW

 GA preallocation disabled
 GA check disabled

 Variable memory set to 100.0 MW



 Permanent file  2  molpro.wf        assigned.  Implementation=df    Size= 11.99 MB


 PROGRAM * RESTART 


 Reading variables from file 2

 _FNUC           =      0.00000000
 _BASIS          =    6-31G**
 _ZCENTRE        =    MASS
 _ZUNIT          =    ANG
 _ZORIENT        =      0.00000000
 _NELEC          =     16.00000000
 _PROGRAM        =    FORCES
 _DMX(1:3)       =      0.00687526    -0.05295282    -0.10404864
 _DMY(1:3)       =     -0.08236375    -0.11516540    -0.15424349
 _DMZ(1:3)       =      0.01499744     0.04370588     0.02574808
 _ENERGY(1:3)    =    -78.00592769   -77.70475211   -77.57471922
 _ENERGY_METHOD  =    MULTI
 _ENERGY_BASIS   =    6-31G**
 _ENERGY_AVRG    =    -77.76179967
 _ENUC           =     31.47824217
 _EPS1(1:11)     =    -11.26397289   -11.25504510    -0.99755535    -0.78700742    -0.62350136    -0.55054121
                       -0.51294780    -0.08495598    -0.11579753     0.24656377     0.27080683
 _VIRIAL         =      0.29915990
 _IPROC_MPP      =      0.00000000
 _IPROC_MPPX     =      0.00000000
 _ORBITAL        =   2140.20000000
 _STATUS         =      1.00000000
 _DATE           =    15-Nov-24
 _LASTORB        =    MCSCF
 _PGROUP         =    C1  
 _TIME           =    09:57:49
 _DMX_CC(1:3)    =     -0.39282848    -0.39282848    -0.39282848
 _DMY_CC(1:3)    =     -0.27766736    -0.27766736    -0.27766736
 _DMZ_CC(1:3)    =    -19.84285940   -19.84285940   -19.84285940
 _DMX_NUC(1:3)   =      0.46239938     0.46239938     0.46239938
 _DMY_NUC(1:3)   =      0.33208180     0.33208180     0.33208180
 _DMZ_NUC(1:3)   =     22.70957517    22.70957517    22.70957517
 GEOMTYPE        =    XYZ
 _TRDMX(1:3)     =     -0.23842242     0.02887506    -0.38319247
 _TRDMY(1:3)     =      0.17160021     0.01649496     0.27528025
 _TRDMZ(1:3)     =      1.27504433    -0.01130738     2.04727167

 Geometry written to block  1 of record 700


 **********************************************************************************************************************************
 DATASETS  * FILE   NREC   LENGTH (MB)   RECORD NAMES
              2       6       11.99       500      610      700     1000      520     2140   
                                          VAR    BASINP    GEOM     BASIS   MCVARS    MCSCF   

 PROGRAMS   *        TOTAL   RESTART
 CPU TIMES  *         0.09      0.00
 REAL TIME  *         0.10 SEC
 DISK USED  *        23.47 MB
 **********************************************************************************************************************************


 THRESHOLDS:

 ZERO    =  1.00D-12  ONEINT  =  1.00D-12  TWOINT  =  1.00D-13  PREFAC  =  1.00D-14  XXXXXX  =  1.00D-09  EORDER  =  1.00D-04
 ENERGY  =  1.00D-10  ETEST   =  0.00D+00  EDENS   =  0.00D+00  THRDEDEF=  1.00D-06  GRADIENT=  1.00D-10  STEP    =  1.00D-03
 ORBITAL =  1.00D-05  CIVEC   =  1.00D-05  COEFF   =  1.00D-04  PRINTCI =  9.00D-09  PUNCHCI =  9.90D+01  OPTGRAD =  3.00D-04
 OPTENERG=  1.00D-06  OPTSTEP =  3.00D-04  THRGRAD =  1.00D-10  COMPRESS=  1.00D-11  VARMIN  =  1.00D-07  VARMAX  =  1.00D-03
 THRDOUB =  0.00D+00  THRDIV  =  1.00D-05  THRRED  =  1.00D-07  THRPSP  =  1.00D+00  THRDC   =  1.00D-10  THRCS   =  1.00D-10
 THRNRM  =  1.00D-08  THREQ   =  0.00D+00  THRDE   =  1.00D+00  THRREF  =  1.00D-05  SPARFAC =  1.00D+00  THRDLP  =  1.00D-07
 THRDIA  =  1.00D-10  THRDLS  =  1.00D-07  THRGPS  =  0.00D+00  THRKEX  =  0.00D+00  THRDIS  =  2.00D-01  THRVAR  =  1.00D-10
 THRLOC  =  1.00D-06  THRGAP  =  1.00D-06  THRLOCT = -1.00D+00  THRGAPT = -1.00D+00  THRORB  =  1.00D-06  THRMLTP =  0.00D+00
 THRCPQCI=  1.00D-10  KEXTA   =  0.00D+00  THRCOARS=  0.00D+00  SYMTOL  =  1.00D-06  GRADTOL =  1.00D-06  THROVL  =  1.00D-08
 THRORTH =  1.00D-08  THRDLOVL= -1.00D+00  GRID    =  1.00D-06  GRIDMAX =  1.00D-03  DTMAX   =  0.00D+00  THROCCDE=  1.00D-01
 THROCCDE=  1.00D-01  THRPRINT=  0.00D+00

 SETTING BASIS          =    6-31G**
 SETTING GEOMTYPE       =    XYZ
 ZSYMEL=NOSYM
 ZUNIT=ANG


 Geometry recognized as XYZ



 Recomputing integrals since basis changed


 Using spherical harmonics

 Library entry C      S 6-31G                selected for orbital group  1
 Library entry C      P 6-31G                selected for orbital group  1
 Library entry C      D 6-31G*               selected for orbital group  1
 Library entry H      S 6-31G                selected for orbital group  2
 Library entry H      P 6-31G**              selected for orbital group  2


 PROGRAM * SEWARD (Integral evaluation for generally contracted gaussian basis sets)     Author: Roland Lindh, 1990

 Geometry written to block  1 of record 700


 Point group  C1  



 ATOMIC COORDINATES

 NR  ATOM    CHARGE       X              Y              Z

   1  C       6.00    0.272357040   -0.023258070    0.207721060
   2  C       6.00   -0.237999340    0.075404100    2.645197550
   3  H       1.00    2.198992030    0.181488880   -0.870643050
   4  H       1.00   -1.355037560    0.107389000   -0.963894000
   5  H       1.00   -2.087534500    0.085324430    3.324763260
   6  H       1.00    1.679522430    0.002410060    3.546013060

 NUCLEAR CHARGE:                   16
 NUMBER OF PRIMITIVE AOS:          84
 NUMBER OF SYMMETRY AOS:           82
 NUMBER OF CONTRACTIONS:           48   (   48A   )
 NUMBER OF INNER CORE ORBITALS:     0   (    0A   )
 NUMBER OF OUTER CORE ORBITALS:     2   (    2A   )
 NUMBER OF VALENCE ORBITALS:       12   (   12A   )


 NUCLEAR REPULSION ENERGY   33.54345222

 Eigenvalues of metric

         1 0.644E-02 0.161E-01 0.386E-01 0.511E-01 0.607E-01 0.141E+00 0.160E+00 0.174E+00


 Contracted 2-electron integrals neglected if value below      1.0D-14
 AO integral compression algorithm  1   Integral accuracy      1.0D-14

     6.029 MB (compressed) written to integral file ( 90.4%)


 NUMBER OF SORTED TWO-ELECTRON INTEGRALS:     692076.     BUFFER LENGTH:  32768
 NUMBER OF SEGMENTS:   1  SEGMENT LENGTH:     692076      RECORD LENGTH: 524288

 Memory used in sort:       1.25 MW

 SORT1 READ      832175. AND WROTE      681873. INTEGRALS IN      2 RECORDS. CPU TIME:     0.01 SEC, REAL TIME:     0.01 SEC
 SORT2 READ      681873. AND WROTE      692076. INTEGRALS IN     23 RECORDS. CPU TIME:     0.02 SEC, REAL TIME:     0.03 SEC

 FILE SIZES:   FILE 1:    36.1 MBYTE,  FILE 4:     8.4 MBYTE,   TOTAL:     44.6 MBYTE

 OPERATOR DM      FOR CENTER  0  COORDINATES:    0.000000    0.000000    0.000000


 **********************************************************************************************************************************
 DATASETS  * FILE   NREC   LENGTH (MB)   RECORD NAMES
              1      19       33.42       500      700      610      900      950      970     1000      129      960     1100   
                                          VAR     GEOM    BASINP   SYMINP    ZMAT    AOBASIS   BASIS     P2S    ABASIS      S 
                                         1400     1410     1200     1210     1080     1600     1650     1300     1700   
                                           T        V       H0       H01     AOSYM     SMH    MOLCAS    ERIS     OPER   

              2       6       11.99       500      610      700     1000      520     2140   
                                          VAR    BASINP    GEOM     BASIS   MCVARS    MCSCF   

 PROGRAMS   *        TOTAL       INT   RESTART
 CPU TIMES  *         0.27      0.17      0.00
 REAL TIME  *         0.37 SEC
 DISK USED  *        54.54 MB
 **********************************************************************************************************************************

 PROGRAM * MULTI (Direct Multiconfiguration SCF)       Authors: P.J. Knowles, H.-J. Werner (1984)
                                                                D.A. Kreplin, P.J. Knowles, H.-J. Werner (2019)

 Number of closed-shell orbitals:   7 (    7)
 Number of active  orbitals:        2 (    2)
 Number of external orbitals:      39 (   39)

 State symmetry 1

 Number of active electrons:   2    Spin symmetry=Singlet   Space symmetry=1
 Number of states:             3
 Number of CSFs:               3   (4 determinants, 4 intermediate states)

 Molecular orbitals read from record     2140.2  Type=MCSCF/NATURAL (state averaged)

 Wavefunction dump at record             2140.2

 Convergence thresholds  0.10E-09 (gradient)  0.10E-09 (energy)

 Weight factors for state symmetry  1:    0.33333   0.33333   0.33333
 
 Number of orbital rotations:  365  ( 14 closed/active, 273 closed/virtual, 0 active/active, 78 active/virtual )
 Total number of variables:    377
 
 Second-order MCSCF: L-BFGS accelerated
 
 ITER  MIC  NCI  NEG     ENERGY(VAR)    ENERGY(PROJ) ENERGY CHANGE       GRAD(0)  GRAD(ORB)   GRAD(CI)      STEP      TIME

 GLOBAL ERROR fehler on processor   0                                         
